data_MIF_one_T1_default

_audit_creation_method RASPA-1.0
_audit_creation_date 2023-2-28
_audit_author_name 'Ambroise de Izarra'
						
_citation_author_name        'Fabien Cailliez, Guillaume Stirnemann, Anne Boutin, Isabelle Demachy, Alain H. Fuchs'
_citation_title              'Does Water Condense in Hydrophobic Cavities? A Molecular Simulation Study of Hydration in Heterogeneous Nanopores'
_citation_journal_abbrev     'J. Phys. Chem. C'
_citation_journal_volume     112
_citation_journal_number     27
_citation_page_first         10435
_citation_page_last          10445
_citation_year               2008

_cell_length_a    20.070
_cell_length_b    19.920
_cell_length_c    13.420
_cell_angle_alpha 90
_cell_angle_beta  90
_cell_angle_gamma 90
_cell_volume      5365.24

_symmetry_cell_setting          orthorhombic
_symmetry_space_group_name_Hall 'P 1'
_symmetry_space_group_name_H-M  'P 1'
_symmetry_Int_Tables_number     1

_symmetry_equiv_pos_as_xyz 'x,y,z'

loop_
_atom_site_label
_atom_site_type_symbol
_atom_site_fract_x
_atom_site_fract_y
_atom_site_fract_z
_atom_site_charge
Hn1     H      0.4081134  0.0350139  0.7497453     0	
Hn2		H      0.4531189  0.1402673  0.6301779     0	
Hn3		H      0.4621318 -0.0091899  0.5919042     0	
Hn4		H      0.4744480  0.0010971  0.7104010     0	
Sin5	Si4+   0.3090184  0.0281124  0.8151267     0	
Si6     Si4+   0.2788241  0.0601908  0.0312221     0	
Si7     Si4+   0.1220229  0.0641064  0.0325633     0	
Sin8    Si4+   0.0727952  0.0278112  0.8178092     0	
Si9     Si4+   0.1883906  0.0572791  0.6751118     0	
Si10    Si4+   0.4232187  0.8305221  0.6742176     0	
Si11    Si4+   0.3076233  0.8713855  0.8152012     0	
Si12    Si4+   0.2747882  0.8278112  0.0365872     0	
Si13    Si4+   0.1198804  0.8271084  0.0269001     0	
Si14    Si4+   0.0702043  0.8695783  0.8174367     0	
Si15    Si4+   0.1893871  0.8258032  0.6827869     0	
On16    O2-    0.3727952  0.0665161  0.7602832     0	
O17     O2-    0.3095167  0.0620984  0.9239195     0	
O18     O2-    0.1993024  0.0604920  0.0263040     0	
O19     O2-    0.1000000  0.0570783  0.9183308     0	
O20     O2-    0.1182860  0.0591867  0.7303279     0	
O21     O2-    0.2407075  0.0439759  0.7581967     0	
O22     O2-    0.3749875  0.8490964  0.7639344     0	
O23     O2-    0.3079223  0.8485944  0.9318927     0	
O24     O2-    0.1981066  0.8458835  0.0324143     0	
O25     O2-    0.0908819  0.8347892  0.9248882     0	
O26     O2-    0.1230194  0.8572791  0.7368107     0	
O27     O2-    0.2529148  0.8339859  0.7607303     0	
O28     O2-    0.3112108  0.9480924  0.8177347     0	
O29     O2-    0.0790234  0.9473896  0.8257079     0	
On30    O2-    0.4091181  0.1258032  0.6129657     0	
On31    O2-    0.4159940  0.0011044  0.5822653     0	
O32     O2-    0.3976084  0.8699799  0.5809240     0	
O33     O2-    0.1847035  0.1295181  0.6175857     0	
O34     O2-    0.2036871  0.0030120  0.5979881     0	
O35     O2-    0.1909816  0.8740964  0.5853204     0	
On36    O2-    0.9984056  0.0425201  0.7944113     0	
O37     O2-    0.9984056  0.8435241  0.7921759     0	
O38     O2-    0.4277030  0.7500000  0.6497019     0	
O39     O2-    0.2044843  0.7500000  0.6523845     0	
O40     O2-    0.2860987  0.7500000  0.0590164     0	
O41     O2-    0.1089188  0.7500000  0.0579732     0	
Si42	Si4+   0.0767813  0.9395080  0.1693741     0	
Si43    Si4+   0.1909816  0.9718876  0.3151267     0	
Si44    Si4+   0.2211759  0.9398092  0.5312221     0	
Sin45   Si4+   0.3779771  0.9358936  0.5325633     0	
Si46    Si4+   0.4272048  0.9721888  0.3178092     0	
Si47    Si4+   0.3116094  0.9427209  0.1751118     0	
Si48    Si4+   0.0767813  0.1694779  0.1742176     0	
Si49    Si4+   0.1923767  0.1286145  0.3152012     0	
Si50    Si4+   0.2252118  0.1721888  0.5365872     0	
Sin51   Si4+   0.3801196  0.1728916  0.5269001     0	
Si52    Si4+   0.4297957  0.1304217  0.3174367     0	
Si53	Si4+   0.3106129  0.1741968  0.1827869     0	
O54		O2-    0.1272048  0.9334839  0.2602832     0	
O55     O2-    0.1904833  0.9379016  0.4239195     0	
O56     O2-    0.3006976  0.9395080  0.5263040     0	
O57     O2-    0.4000000  0.9429217  0.4183308     0	
O58     O2-    0.3817140  0.9408133  0.2303279     0	
O59     O2-    0.2592925  0.9560241  0.2581967     0	
O60     O2-    0.1250125  0.1509036  0.2639344     0	
O61     O2-    0.1920777  0.1514056  0.4318927     0	
O62     O2-    0.3018934  0.1541165  0.5324143     0	
O63     O2-    0.4091181  0.1652108  0.4248882     0	
O64     O2-    0.3769806  0.1427209  0.2368107     0	
O65     O2-    0.2470852  0.1660141  0.2607303     0	
O66     O2-    0.1887892  0.0519076  0.3177347     0	
O67     O2-    0.4209766  0.0526104  0.3257079     0	
O68     O2-    0.0908819  0.8741968  0.1129657     0	
O69     O2-    0.0840060  0.9988956  0.0822653     0	
O70     O2-    0.1023916  0.1300201  0.0809240     0	
O71     O2-    0.3152965  0.8704819  0.1175857     0	
O72     O2-    0.2963129  0.9969880  0.0979881     0	
O73     O2-    0.3090184  0.1259036  0.0853204     0	
O74     O2-    0.5015944  0.9574799  0.2944113     0	
O75     O2-    0.5015944  0.1564759  0.2921759     0	
O76     O2-    0.0722970  0.2500000  0.1497019     0	
O77     O2-    0.2955157  0.2500000  0.1523845     0	
O78     O2-    0.2139013  0.2500000  0.5590164     0	
O79     O2-    0.3910812  0.2500000  0.5579732     0	
Si80	Si4+   0.9232187  0.4395080  0.8306259     0	
Si81    Si4+   0.8090184  0.4718876  0.6848733     0	
Si82    Si4+   0.7788241  0.4398092  0.4687779     0	
Sin83   Si4+   0.6220229  0.4358936  0.4674367     0	
Si84    Si4+   0.5727952  0.4721888  0.6821908     0	
Si85    Si4+   0.6883906  0.4427209  0.8248882     0	
Si86    Si4+   0.9232187  0.6694779  0.8257824     0	
Si87    Si4+   0.8076233  0.6286145  0.6847988     0	
Si88    Si4+   0.7747882  0.6721888  0.4634128     0	
Sin89   Si4+   0.6198804  0.6728916  0.4730999     0	
Si90    Si4+   0.5702043  0.6304217  0.6825633     0	
Si91    Si4+   0.6893871  0.6741968  0.8172131     0	
O92		O2-    0.8727952  0.4334839  0.7397168     0	
O93     O2-    0.8095167  0.4379016  0.5760805     0	
O94     O2-    0.6993024  0.4395080  0.4736960     0	
O95     O2-    0.6000000  0.4429217  0.5816692     0	
O96     O2-    0.6182860  0.4408133  0.7696721     0	
O97     O2-    0.7407075  0.4560241  0.7418033     0	
O98     O2-    0.8749875  0.6509036  0.7360656     0	
O99     O2-    0.8079223  0.6514056  0.5681073     0	
O100    O2-    0.6981066  0.6541165  0.4675857     0	
O101    O2-    0.5908819  0.6652108  0.5751118     0	
O102    O2-    0.6230194  0.6427209  0.7631893     0	
O103    O2-    0.7529148  0.6660141  0.7392697     0	
O104    O2-    0.8112108  0.5519076  0.6822653     0	
O105    O2-    0.5790234  0.5526104  0.6742921     0	
O106    O2-    0.9091181  0.3741968  0.8870343     0	
O107    O2-    0.9159940  0.4988956  0.9177347     0	
O108    O2-    0.8976084  0.6300201  0.9190760     0	
O109    O2-    0.6847035  0.3704819  0.8824143     0	
O110    O2-    0.7036871  0.4969880  0.9020119     0	
O111    O2-    0.6909816  0.6259036  0.9146796     0	
O112    O2-    0.4984056  0.4574799  0.7055887     0	
O113    O2-    0.4984056  0.6564759  0.7078241     0	
O114    O2-    0.9277030  0.7500000  0.8502981     0	
O115    O2-    0.7044843  0.7500000  0.8476155     0	
O116    O2-    0.7860987  0.7500000  0.4409836     0	
O117    O2-    0.6089188  0.7500000  0.4420268     0	
Hn118	H      0.5918866  0.5350139  0.2502547     0	
Hn119   H      0.5468811  0.6402673  0.3698221     0	
Hn120   H      0.5378682  0.4908101  0.4080958     0	
Hn121   H      0.5255520  0.5010971  0.2895990     0	
Sin122	Si4+   0.6909816  0.5281124  0.1848733     0	
Si123   Si4+   0.7211759  0.5601908  0.9687779     0	
Si124   Si4+   0.8779771  0.5641064  0.9674367     0	
Sin125  Si4+   0.9272048  0.5278112  0.1821908     0	
Si126   Si4+   0.8116094  0.5572791  0.3248882     0	
Si127   Si4+   0.5767813  0.3305221  0.3257824     0	
Si128   Si4+   0.6923767  0.3713855  0.1847988     0	
Si129   Si4+   0.7252118  0.3278112  0.9634128     0	
Si130   Si4+   0.8801196  0.3271084  0.9730999     0	
Si131   Si4+   0.9297957  0.3695783  0.1825633     0	
Si132   Si4+   0.8106129  0.3258032  0.3172131     0	
On133   O2-    0.6272048  0.5665161  0.2397168     0	
O134    O2-    0.6904833  0.5620984  0.0760805     0	
O135    O2-    0.8006976  0.5604920  0.9736960     0	
O136    O2-    0.9000000  0.5570783  0.0816692     0	
O137    O2-    0.8817140  0.5591867  0.2696721     0	
O138    O2-    0.7592925  0.5439759  0.2418033     0	
O139    O2-    0.6250125  0.3490964  0.2360656     0	
O140    O2-    0.6920777  0.3485944  0.0681073     0	
O141    O2-    0.8018934  0.3458835  0.9675857     0	
O142    O2-    0.9091181  0.3347892  0.0751118     0	
O143    O2-    0.8769806  0.3572791  0.2631893     0	
O144    O2-    0.7470852  0.3339859  0.2392697     0	
O145    O2-    0.6887892  0.4480924  0.1822653     0	
O146    O2-    0.9209766  0.4473896  0.1742921     0	
On147   O2-    0.5908819  0.6258032  0.3870343     0	
On148   O2-    0.5840060  0.5011044  0.4177347     0	
O149    O2-    0.6023916  0.3699799  0.4190760     0	
O150    O2-    0.8152965  0.6295181  0.3824143     0	
O151    O2-    0.7963129  0.5030120  0.4020119     0	
O152    O2-    0.8090184  0.3740964  0.4146796     0	
On153   O2-    0.0015944  0.5425201  0.2055887     0	
O154    O2-    0.0015944  0.3435241  0.2078241     0	
O155    O2-    0.5722970  0.2500000  0.3502981     0	
O156    O2-    0.7955157  0.2500000  0.3476155     0	
O157    O2-    0.7139013  0.2500000  0.9409836     0	
O158    O2-    0.8910812  0.2500000  0.9420268     0	
Si159	Si4+   0.5767813  0.9395080  0.3306259     0	
Si160   Si4+   0.6909816  0.9718876  0.1848733     0	
Si161   Si4+   0.7211759  0.9398092  0.9687779     0	
Sin162  Si4+   0.8779771  0.9358936  0.9674367     0	
Si163   Si4+   0.9272048  0.9721888  0.1821908     0	
Si164   Si4+   0.8116094  0.9427209  0.3248882     0	
Si165   Si4+   0.5767813  0.1694779  0.3257824     0	
Si166   Si4+   0.6923767  0.1286145  0.1847988     0	
Si167   Si4+   0.7252118  0.1721888  0.9634128     0	
Sin168  Si4+   0.8801196  0.1728916  0.9730999     0	
Si169   Si4+   0.9297957  0.1304217  0.1825633     0	
Si170   Si4+   0.8106129  0.1741968  0.3172131     0	
O171	O2-    0.6272048  0.9334839  0.2397168     0	
O172    O2-    0.6904833  0.9379016  0.0760805     0	
O173    O2-    0.8006976  0.9395080  0.9736960     0	
O174    O2-    0.9000000  0.9429217  0.0816692     0	
O175    O2-    0.8817140  0.9408133  0.2696721     0	
O176    O2-    0.7592925  0.9560241  0.2418033     0	
O177    O2-    0.6250125  0.1509036  0.2360656     0	
O178    O2-    0.6920777  0.1514056  0.0681073     0	
O179    O2-    0.8018934  0.1541165  0.9675857     0	
O180    O2-    0.9091181  0.1652108  0.0751118     0	
O181    O2-    0.8769806  0.1427209  0.2631893     0	
O182    O2-    0.7470852  0.1660141  0.2392697     0	
O183    O2-    0.6887892  0.0519076  0.1822653     0	
O184    O2-    0.9209766  0.0526104  0.1742921     0	
O185    O2-    0.5908819  0.8741968  0.3870343     0	
O186    O2-    0.5840060  0.9988956  0.4177347     0	
O187    O2-    0.6023916  0.1300201  0.4190760     0	
O188    O2-    0.8152965  0.8704819  0.3824143     0	
O189    O2-    0.7963129  0.9969880  0.4020119     0	
O190    O2-    0.8090184  0.1259036  0.4146796     0	
O191    O2-    0.0015944  0.9574799  0.2055887     0	
O192    O2-    0.0015944  0.1564759  0.2078241     0	
Hn193   H      0.9744480  0.0010971  0.7895990     0	
Hn194   H      0.9081134  0.0350139  0.7502547     0	
Hn195   H      0.9531189  0.1402673  0.8698221     0	
Hn196   H      0.9621318 -0.0091899  0.9080958     0	
Sin197	Si4+   0.8090184  0.0281124  0.6848733     0	
Si198   Si4+   0.7788241  0.0601908  0.4687779     0	
Si199   Si4+   0.6220229  0.0641064  0.4674367     0	
Sin200  Si4+   0.5727952  0.0278112  0.6821908     0	
Si201   Si4+   0.6883906  0.0572791  0.8248882     0	
Si202   Si4+   0.9232187  0.8305221  0.8257824     0	
Si203   Si4+   0.8076233  0.8713855  0.6847988     0	
Si204   Si4+   0.7747882  0.8278112  0.4634128     0	
Si205   Si4+   0.6198804  0.8271084  0.4730999     0	
Si206   Si4+   0.5702043  0.8695783  0.6825633     0	
Si207   Si4+   0.6893871  0.8258032  0.8172131     0	
On208   O2-    0.8727952  0.0665161  0.7397168     0	
O209    O2-    0.8095167  0.0620984  0.5760805     0	
O210    O2-    0.6993024  0.0604920  0.4736960     0	
O211    O2-    0.6000000  0.0570783  0.5816692     0	
O212    O2-    0.6182860  0.0591867  0.7696721     0	
O213    O2-    0.7407075  0.0439759  0.7418033     0	
O214    O2-    0.8749875  0.8490964  0.7360656     0	
O215    O2-    0.8079223  0.8485944  0.5681073     0	
O216    O2-    0.6981066  0.8458835  0.4675857     0	
O217    O2-    0.5908819  0.8347892  0.5751118     0	
O218    O2-    0.6230194  0.8572791  0.7631893     0	
O219    O2-    0.7529148  0.8339859  0.7392697     0	
O220    O2-    0.8112108  0.9480924  0.6822653     0	
O221    O2-    0.5790234  0.9473896  0.6742921     0	
On222   O2-    0.9091181  0.1258032  0.8870343     0	
On223   O2-    0.9159940  0.0011044  0.9177347     0	
O224    O2-    0.8976084  0.8699799  0.9190760     0	
O225    O2-    0.6847035  0.1295181  0.8824143     0	
O226    O2-    0.7036871  0.0030120  0.9020119     0	
O227    O2-    0.6909816  0.8740964  0.9146796     0	
On228   O2-    0.4984056  0.0425201  0.7055887     0	
O229    O2-    0.4984056  0.8435241  0.7078241     0	
Hn230	H      0.0255520  0.5010971  0.2104010     0	
Hn231   H      0.0918866  0.5350139  0.2497453     0	
Hn232   H      0.0468811  0.6402673  0.1301779     0	
Hn233   H      0.0378682  0.4908101  0.0919042     0	
Sin234  Si4+   0.1909816  0.5281124  0.3151267     0	
Si235   Si4+   0.2211759  0.5601908  0.5312221     0	
Si236   Si4+   0.3779771  0.5641064  0.5325633     0	
Sin237  Si4+   0.4272048  0.5278112  0.3178092     0	
Si238   Si4+   0.3116094  0.5572791  0.1751118     0	
Si239   Si4+   0.0767813  0.3305221  0.1742176     0	
Si240   Si4+   0.1923767  0.3713855  0.3152012     0	
Si241   Si4+   0.2252118  0.3278112  0.5365872     0	
Si242   Si4+   0.3801196  0.3271084  0.5269001     0	
Si243   Si4+   0.4297957  0.3695783  0.3174367     0	
Si244   Si4+   0.3106129  0.3258032  0.1827869     0	
On245	O2-    0.1272048  0.5665161  0.2602832     0	
O246    O2-    0.1904833  0.5620984  0.4239195     0	
O247    O2-    0.3006976  0.5604920  0.5263040     0	
O248    O2-    0.4000000  0.5570783  0.4183308     0	
O249    O2-    0.3817140  0.5591867  0.2303279     0	
O250    O2-    0.2592925  0.5439759  0.2581967     0	
O251    O2-    0.1250125  0.3490964  0.2639344     0	
O252    O2-    0.1920777  0.3485944  0.4318927     0	
O253    O2-    0.3018934  0.3458835  0.5324143     0	
O254    O2-    0.4091181  0.3347892  0.4248882     0	
O255    O2-    0.3769806  0.3572791  0.2368107     0	
O256    O2-    0.2470852  0.3339859  0.2607303     0	
O257    O2-    0.1887892  0.4480924  0.3177347     0	
O258    O2-    0.4209766  0.4473896  0.3257079     0	
On259   O2-    0.0908819  0.6258032  0.1129657     0	
On260   O2-    0.0840060  0.5011044  0.0822653     0	
O261    O2-    0.1023916  0.3699799  0.0809240     0	
O262    O2-    0.3152965  0.6295181  0.1175857     0	
O263    O2-    0.2963129  0.5030120  0.0979881     0	
O264    O2-    0.3090184  0.3740964  0.0853204     0	
On265   O2-    0.5015944  0.5425201  0.2944113     0	
O266    O2-    0.5015944  0.3435241  0.2921759     0	
Si267	Si4+   0.4232187  0.4395080  0.6693741     0	
Si268   Si4+   0.3090184  0.4718876  0.8151267     0	
Si269   Si4+   0.2788241  0.4398092  0.0312221     0	
Sin270  Si4+   0.1220229  0.4358936  0.0325633     0	
Si271   Si4+   0.0727952  0.4721888  0.8178092     0	
Si272   Si4+   0.1883906  0.4427209  0.6751118     0	
Si273   Si4+   0.4232187  0.6694779  0.6742176     0	
Si274   Si4+   0.3076233  0.6286145  0.8152012     0	
Si275   Si4+   0.2747882  0.6721888  0.0365872     0	
Sin276  Si4+   0.1198804  0.6728916  0.0269001     0	
Si277   Si4+   0.0702043  0.6304217  0.8174367     0	
Si278	Si4+   0.1893871  0.6741968  0.6827869     0	
O279	O2-    0.3727952  0.4334839  0.7602832     0	
O280    O2-    0.3095167  0.4379016  0.9239195     0	
O281    O2-    0.1993024  0.4395080  0.0263040     0	
O282    O2-    0.1000000  0.4429217  0.9183308     0	
O283    O2-    0.1182860  0.4408133  0.7303279     0	
O284    O2-    0.2407075  0.4560241  0.7581967     0	
O285    O2-    0.3749875  0.6509036  0.7639344     0	
O286    O2-    0.3079223  0.6514056  0.9318927     0	
O287    O2-    0.1981066  0.6541165  0.0324143     0	
O288    O2-    0.0908819  0.6652108  0.9248882     0	
O289    O2-    0.1230194  0.6427209  0.7368107     0	
O290    O2-    0.2529148  0.6660141  0.7607303     0	
O291    O2-    0.3112108  0.5519076  0.8177347     0	
O292    O2-    0.0790234  0.5526104  0.8257079     0	
O293    O2-    0.4091181  0.3741968  0.6129657     0	
O294    O2-    0.4159940  0.4988956  0.5822653     0	
O295    O2-    0.3976084  0.6300201  0.5809240     0	
O296    O2-    0.1847035  0.3704819  0.6175857     0	
O297    O2-    0.2036871  0.4969880  0.5979881     0	
O298    O2-    0.1909816  0.6259036  0.5853204     0	
O299    O2-    0.9984056  0.4574799  0.7944113     0	
O300    O2-    0.9984056  0.6564759  0.7921759     0	
